# vtk DataFile Version 3.0
flash 3d grid and solution
ASCII
DATASET RECTILINEAR_GRID
DIMENSIONS 21 21 2
X_COORDINATES 21 float
0.0 0.5 1.0 1.5 2.0 2.5 3.0 3.5 4.0 4.5 5.0 5.5 6.0 6.5 7.0 7.5 8.0 8.5 9.0 9.5 10.0
Y_COORDINATES 21 float
0.0 0.5 1.0 1.5 2.0 2.5 3.0 3.5 4.0 4.5 5.0 5.5 6.0 6.5 7.0 7.5 8.0 8.5 9.0 9.5 10.0
Z_COORDINATES 2 float
0.0 1.0
CELL_DATA 400
FIELD FieldData 1
t 1 400 float
635.8897 361.2202 237.81438 172.77258 133.84914 108.32097 90.5176 77.63209 68.15679 61.238705 56.392517 53.370373 52.11326 52.762215 55.743347 61.994755 73.5413 95.05125 138.48349 238.4265 818.22833 571.17664 417.2647 319.4268 254.30293 208.9171 176.11736 151.85397 133.75638 120.405495 110.96098 104.975716 102.32045 103.19224 108.216415 118.69437 137.11919 168.18019 220.45619 307.64896 884.075 687.9932 540.6411 433.3669 355.01865 296.92715 253.18068 219.91 194.60925 175.6659 162.07018 153.25104 149.00055 149.4699 155.23566 167.44713 188.06091 220.09409 267.51202 333.36203 914.1533 756.0801 623.9395 518.3809 435.4775 370.59216 319.76813 279.9961 249.10477 225.5786 208.4028 196.95767 190.96077 190.45116 195.80916 207.79756 227.58319 256.62326 296.13577 345.64908 930.6115 798.23425 680.65594 580.73975 497.9181 430.1958 375.30353 331.2015 296.2351 269.14087 249.00471 235.21614 227.4337 225.56474 229.75226 240.3507 257.851 282.67996 314.75873 352.7476 940.66986 825.5894 719.71045 626.00385 545.25916 476.96936 420.0487 373.27136 335.4932 305.74493 283.2591 267.46848 257.99316 254.62187 257.2845 266.0019 280.79028 301.48676 327.47156 357.33008 947.1482 843.743 746.5925 658.306 580.1453 512.37354 454.65045 406.34195 366.7214 335.0865 310.81815 293.40552 282.44852 277.6451 278.76184 285.58203 297.8216 315.00513 336.31055 360.43124 951.32825 855.6418 764.6107 680.48254 604.64246 537.7289 479.8377 430.72452 389.96402 357.0613 331.5215 312.8869 300.75024 294.7481 294.53577 299.74286 309.90887 324.4016 342.3343 362.51556 953.8514 862.8852 775.7258 694.37085 620.21313 554.0617 496.24698 446.75433 405.3487 371.67325 345.3196 325.87033 312.91748 306.0613 304.89014 308.94476 317.66946 330.3582 346.10934 363.81223 955.04333 866.3218 781.03644 701.06165 627.7775 562.0578 504.33398 454.69714 413.00302 378.9632 352.21335 332.35724 318.98804 311.6894 310.0187 313.47653 321.46613 333.25232 347.93265 364.43622 955.04333 866.3218 781.03644 701.06165 627.7775 562.0578 504.33398 454.69714 413.00302 378.9632 352.21335 332.35724 318.98804 311.6894 310.0187 313.47653 321.46613 333.25232 347.93265 364.43622 953.8514 862.8852 775.7258 694.37085 620.21313 554.0617 496.24692 446.75433 405.3487 371.67325 345.3196 325.87033 312.91748 306.0613 304.89014 308.94476 317.6695 330.35822 346.10934 363.81223 951.3283 855.6418 764.6107 680.48254 604.64246 537.7288 479.83765 430.72446 389.964 357.0613 331.5215 312.8869 300.75024 294.7481 294.53577 299.7429 309.90894 324.40167 342.33432 362.51556 947.14825 843.74304 746.5926 658.306 580.14526 512.3734 454.65036 406.34186 366.72137 335.08646 310.81815 293.40552 282.4485 277.6451 278.76187 285.5821 297.82162 315.00516 336.31058 360.43124 940.66986 825.58954 719.7105 626.00385 545.2591 476.96927 420.0486 373.27133 335.4932 305.7449 283.25906 267.46848 257.99316 254.62192 257.28452 266.00192 280.79034 301.48676 327.47156 357.33008 930.6115 798.2343 680.656 580.73975 497.91803 430.19574 375.30353 331.2015 296.2351 269.14087 249.00471 235.21617 227.43375 225.56479 229.75232 240.35074 257.85107 282.68 314.75873 352.7476 914.1533 756.08014 623.9396 518.3809 435.47745 370.5921 319.76813 279.99612 249.10478 225.57861 208.4028 196.9577 190.96078 190.45117 195.8092 207.7976 227.58325 256.6233 296.1358 345.64908 884.075 687.9932 540.6411 433.36685 355.01862 296.92712 253.18066 219.91 194.60927 175.6659 162.07019 153.25105 149.00055 149.46991 155.23567 167.44714 188.06093 220.09412 267.51202 333.36203 818.22833 571.17664 417.26474 319.4268 254.30292 208.9171 176.11734 151.85396 133.75638 120.405495 110.96099 104.975716 102.32045 103.19224 108.216415 118.69438 137.11922 168.1802 220.45619 307.64896 635.8897 361.22018 237.81438 172.77258 133.84912 108.32096 90.5176 77.632095 68.1568 61.2387 56.392517 53.370377 52.113262 52.76221 55.743347 61.99476 73.541306 95.05125 138.48349 238.4265
