# vtk DataFile Version 3.0
flash 3d grid and solution
ASCII
DATASET RECTILINEAR_GRID
DIMENSIONS 21 21 2
X_COORDINATES 21 float
0.0 0.5 1.0 1.5 2.0 2.5 3.0 3.5 4.0 4.5 5.0 5.5 6.0 6.5 7.0 7.5 8.0 8.5 9.0 9.5 10.0
Y_COORDINATES 21 float
0.0 0.5 1.0 1.5 2.0 2.5 3.0 3.5 4.0 4.5 5.0 5.5 6.0 6.5 7.0 7.5 8.0 8.5 9.0 9.5 10.0
Z_COORDINATES 2 float
0.0 1.0
CELL_DATA 400
FIELD FieldData 1
t 1 400 float
317.82028 180.23344 118.269485 85.4722 65.711845 52.61914 43.349754 36.489273 31.27019 27.248198 24.156534 21.837069 20.209322 19.263393 19.076817 19.871758 22.166763 27.192528 38.13667 64.25524 408.86798 284.844 207.3723 157.90746 124.75606 101.41496 84.2906 71.33715 61.343285 53.566067 47.540863 42.982414 39.736828 37.767433 37.17211 38.243446 41.60277 48.46667 61.09891 83.139534 441.67557 342.90234 268.46823 214.02922 173.98994 143.99402 121.06055 103.225426 89.19974 78.13192 69.458435 62.814903 57.988144 54.8974 53.600742 54.32715 57.534214 63.972496 74.652756 90.34352 456.60745 376.62152 309.56897 255.75133 213.1805 179.51059 152.73212 131.30428 114.09827 100.303444 89.346016 80.83062 74.50345 70.23328 68.00632 67.93018 70.23444 75.23637 83.196075 93.9253 464.7401 397.40726 337.4347 286.2266 243.47008 208.13568 179.05301 155.16132 135.5856 119.63755 106.79157 96.6581 88.961784 83.52592 80.26108 79.15282 80.23699 83.54245 88.96989 96.08688 469.6858 410.83264 356.53592 308.25018 266.33752 230.50903 200.18292 174.70235 153.44531 135.8696 121.52459 110.04839 101.15967 94.64754 90.35929 88.18299 88.018265 89.72654 93.05413 97.53922 472.8562 419.70166 369.62616 323.9006 283.12067 247.38 216.4673 190.01982 167.62366 148.87093 133.38876 120.8512 110.981 103.54526 98.34552 95.20158 93.92652 94.2913 95.980865 98.55509 474.89346 425.49182 378.36636 334.60547 294.8645 259.42303 228.28638 201.28596 178.15855 158.60167 142.30835 128.98663 118.36787 110.20698 104.275986 100.351265 98.19492 97.53129 98.02291 99.255356 476.11926 429.00558 383.74194 341.2903 302.30878 267.16116 235.96925 208.6791 185.12291 165.06882 148.25633 134.4191 123.296814 114.63878 108.200134 103.73258 100.97062 99.616 99.32413 99.69878 476.69717 430.66946 386.30545 344.50497 305.91913 270.94354 239.75034 212.33821 188.58516 168.29436 151.22908 137.13658 125.76153 116.85117 110.153206 105.408264 102.33896 100.63793 99.958824 99.914406 476.69717 430.66946 386.30545 344.50497 305.91913 270.94354 239.75034 212.33821 188.58516 168.29436 151.22908 137.13658 125.76153 116.85117 110.153206 105.408264 102.33896 100.63793 99.958824 99.914406 476.11926 429.00558 383.74194 341.2903 302.30878 267.16113 235.96924 208.67906 185.12291 165.06882 148.25633 134.4191 123.296814 114.63878 108.200134 103.73258 100.97062 99.616 99.32413 99.69878 474.89346 425.49182 378.36633 334.60547 294.8645 259.42303 228.28638 201.28595 178.15855 158.60168 142.30835 128.98663 118.36787 110.20698 104.275986 100.351265 98.19492 97.53129 98.02291 99.255356 472.8562 419.70166 369.62616 323.90067 283.1207 247.38 216.4673 190.01982 167.62367 148.87096 133.3888 120.851204 110.981 103.54527 98.345535 95.201584 93.92652 94.291306 95.980865 98.55509 469.6858 410.83264 356.53592 308.25018 266.33752 230.50903 200.18295 174.70236 153.44534 135.86964 121.52463 110.048416 101.1597 94.64756 90.3593 88.18299 88.018265 89.72654 93.05413 97.53922 464.7401 397.40723 337.43466 286.22656 243.47008 208.13568 179.05302 155.16132 135.58563 119.63759 106.791595 96.65812 88.96181 83.52594 80.2611 79.152824 80.237 83.54245 88.96989 96.08688 456.60742 376.6215 309.5689 255.7513 213.1805 179.51059 152.73212 131.30428 114.09827 100.30345 89.34603 80.83064 74.50348 70.2333 68.00634 67.93019 70.23445 75.236374 83.19608 93.9253 441.67557 342.9023 268.46817 214.02922 173.98996 143.99402 121.06055 103.225426 89.19973 78.13193 69.45844 62.814922 57.988163 54.89742 53.60077 54.327168 57.534233 63.972515 74.65277 90.34352 408.86798 284.84402 207.37228 157.90742 124.75605 101.41496 84.2906 71.33714 61.34328 53.566067 47.54087 42.982433 39.736843 37.76745 37.172127 38.243465 41.60279 48.466694 61.098923 83.13954 317.82028 180.23346 118.269485 85.47219 65.711845 52.619144 43.34976 36.489273 31.27019 27.2482 24.156538 21.837076 20.20933 19.263401 19.076824 19.871767 22.166775 27.192535 38.136673 64.25524
